nqpoint: 606    
npath: 6      
segment_nqpoint:
- 101
- 101
- 101
- 101
- 101
- 101
labels:
- [ '$\Gamma$', 'X' ]
- [ 'X', 'U' ]
- [ 'K', '$\Gamma$' ]
- [ '$\Gamma$', 'X' ]
- [ 'X', 'W' ]
- [ 'W', 'L' ]
reciprocal_lattice:
- [  -0.18292566,   0.18292566,   0.18292566 ] # a*
- [   0.18292566,  -0.18292566,   0.18292566 ] # b*
- [   0.18292566,   0.18292566,  -0.18292566 ] # c*
natom: 2      
lattice:
- [     0.000000000000000,     2.733350803814288,     2.733350803814288 ] # a
- [     2.733350803814288,     0.000000000000000,     2.733350803814288 ] # b
- [     2.733350803814288,     2.733350803814288,     0.000000000000000 ] # c
points:
- symbol: Si # 1
  coordinates: [  0.000000000000000,  0.000000000000000,  0.000000000000000 ]
  mass: 28.085500
- symbol: Si # 2
  coordinates: [  0.250000000000000,  0.250000000000000,  0.250000000000000 ]
  mass: 28.085500

phonon:
- q-position: [    0.0000000,    0.0000000,    0.0000000 ]
  distance:    0.0000000
  band:
  - # 1
    frequency:   -0.0031266326
    eigenvector:
    - # atom 1
      - [  0.00000000000000,  0.00000000000000 ]
      - [  0.43583104036266,  0.00000000000000 ]
      - [ -0.55682250695927,  0.00000000000000 ]
    - # atom 2
      - [  0.00000000000000,  0.00000000000000 ]
      - [  0.43583104036266,  0.00000000000000 ]
      - [ -0.55682250695927,  0.00000000000000 ]
  - # 2
    frequency:   -0.0031266326
    eigenvector:
    - # atom 1
      - [ -0.70710678118655,  0.00000000000000 ]
      - [  0.00000000000000,  0.00000000000000 ]
      - [  0.00000000000000,  0.00000000000000 ]
    - # atom 2
      - [ -0.70710678118655,  0.00000000000000 ]
      - [  0.00000000000000,  0.00000000000000 ]
      - [ -0.00000000000000,  0.00000000000000 ]
  - # 3
    frequency:   -0.0031266326
    eigenvector:
    - # atom 1
      - [  0.00000000000000,  0.00000000000000 ]
      - [ -0.55682250695927,  0.00000000000000 ]
      - [ -0.43583104036266,  0.00000000000000 ]
    - # atom 2
      - [  0.00000000000000,  0.00000000000000 ]
      - [ -0.55682250695927,  0.00000000000000 ]
      - [ -0.43583104036266,  0.00000000000000 ]
  - # 4
    frequency:   15.0995753075
    eigenvector:
    - # atom 1
      - [ -0.70710678118655,  0.00000000000000 ]
      - [  0.00000000000000,  0.00000000000000 ]
      - [  0.00000000000000,  0.00000000000000 ]
    - # atom 2
      - [  0.70710678118655,  0.00000000000000 ]
      - [ -0.00000000000000,  0.00000000000000 ]
      - [  0.00000000000000,  0.00000000000000 ]
  - # 5
    frequency:   15.0995753075
    eigenvector:
    - # atom 1
      - [  0.00000000000000,  0.00000000000000 ]
      - [ -0.54110326473126,  0.00000000000000 ]
      - [  0.45520023824376,  0.00000000000000 ]
    - # atom 2
      - [  0.00000000000000,  0.00000000000000 ]
      - [  0.54110326473126,  0.00000000000000 ]
      - [ -0.45520023824376,  0.00000000000000 ]
  - # 6
    frequency:   15.0995753075
    eigenvector:
    - # atom 1
      - [  0.00000000000000,  0.00000000000000 ]
      - [ -0.45520023824376,  0.00000000000000 ]
      - [ -0.54110326473126,  0.00000000000000 ]
    - # atom 2
      - [  0.00000000000000,  0.00000000000000 ]
      - [  0.45520023824376,  0.00000000000000 ]
      - [  0.54110326473126,  0.00000000000000 ]

- q-position: [    0.0050000,    0.0000000,    0.0050000 ]
  distance:    0.0018293
  band:
  - # 1
    frequency:    0.0612920868
    eigenvector:
    - # atom 1
      - [  0.06909434029544, -0.00000000000000 ]
      - [  0.00000000000160,  0.00000000000001 ]
      - [  0.70368696290319,  0.00711550273833 ]
    - # atom 2
      - [  0.06916392742550, -0.00724387252403 ]
      - [  0.00000000000160,  0.00000000000001 ]
      - [  0.70364967709136,  0.00640385689731 ]
  - # 2
    frequency:    0.0612920868
    eigenvector:
    - # atom 1
      - [ -0.70372293705630,  0.00000000000000 ]
      - [ -0.00000000000018,  0.00000000000000 ]
      - [  0.06909080820881,  0.00069862859612 ]
    - # atom 2
      - [ -0.70367845753748, -0.00071123245652 ]
      - [ -0.00000000000018,  0.00000000000000 ]
      - [  0.06908714733826,  0.00794283442637 ]
  - # 3
    frequency:    0.1448151048
    eigenvector:
    - # atom 1
      - [ -0.00000000000034, -0.00000000000000 ]
      - [  0.70710648720265, -0.00064479137840 ]
      - [ -0.00000000000157, -0.00000000000000 ]
    - # atom 2
      - [ -0.00000000000034,  0.00000000000002 ]
      - [  0.70710648720265, -0.00064479137840 ]
      - [ -0.00000000000157,  0.00000000000000 ]
  - # 4
    frequency:   15.0992628249
    eigenvector:
    - # atom 1
      - [ -0.70702755474119,  0.00000000000000 ]
      - [  0.00000000000121, -0.00000000000000 ]
      - [ -0.01058420438158,  0.00010702476987 ]
    - # atom 2
      - [  0.70698899019248, -0.00010895558871 ]
      - [ -0.00000000000121,  0.00000000000000 ]
      - [  0.01058364356310, -0.00738528024001 ]
  - # 5
    frequency:   15.0994328538
    eigenvector:
    - # atom 1
      - [ -0.00000000000113,  0.00000000000000 ]
      - [ -0.70710648684009,  0.00064518886434 ]
      - [ -0.00000000000530, -0.00000000000002 ]
    - # atom 2
      - [  0.00000000000113, -0.00000000000005 ]
      - [  0.70710648684009, -0.00064518886434 ]
      - [  0.00000000000529,  0.00000000000001 ]
  - # 6
    frequency:   15.0992628249
    eigenvector:
    - # atom 1
      - [ -0.01058474547131,  0.00000000000000 ]
      - [ -0.00000000000528,  0.00000000000008 ]
      - [  0.70699141165679, -0.00714891648017 ]
    - # atom 2
      - [  0.01065777677862,  0.00727788907797 ]
      - [  0.00000000000528, -0.00000000000008 ]
      - [ -0.70695395075425,  0.00703957652632 ]

- q-position: [    0.0100000,    0.0000000,    0.0100000 ]
  distance:    0.0036585
  band:
  - # 1
    frequency:    0.1226944283
    eigenvector:
    - # atom 1
      - [  0.00000000000000,  0.00000000000000 ]
      - [ -0.00000000000006, -0.00000000000000 ]
      - [  0.69243538491780, -0.14329423475402 ]
    - # atom 2
      - [ -0.00295051100714, -0.01425764426907 ]
      - [ -0.00000000000006, -0.00000000000000 ]
      - [  0.69228858279344, -0.14326385517128 ]
  - # 2
    frequency:    0.1226944283
    eigenvector:
    - # atom 1
      - [ -0.70710678118655,  0.00000000000000 ]
      - [  0.00000000000000,  0.00000000000000 ]
      - [  0.00000000000000,  0.00000000000000 ]
    - # atom 2
      - [ -0.70695686860281,  0.00000000000000 ]
      - [  0.00000000000000, -0.00000000000000 ]
      - [ -0.00000000000000,  0.01455973678699 ]
  - # 3
    frequency:    0.2896629982
    eigenvector:
    - # atom 1
      - [ -0.00000000000000,  0.00000000000000 ]
      - [ -0.70710034005859,  0.00301812674233 ]
      - [ -0.00000000000006,  0.00000000000001 ]
    - # atom 2
      - [  0.00000000000000,  0.00000000000000 ]
      - [ -0.70710034005859,  0.00301812674233 ]
      - [ -0.00000000000006,  0.00000000000001 ]
  - # 4
    frequency:   15.0983254574
    eigenvector:
    - # atom 1
      - [ -0.70710678118655,  0.00000000000000 ]
      - [  0.00000000000000,  0.00000000000000 ]
      - [  0.00000000000000,  0.00000000000000 ]
    - # atom 2
      - [  0.70695686860281, -0.00000000000000 ]
      - [ -0.00000000000000,  0.00000000000000 ]
      - [  0.00000000000000, -0.01455973678699 ]
  - # 5
    frequency:   15.0990051402
    eigenvector:
    - # atom 1
      - [  0.00000000000000,  0.00000000000000 ]
      - [ -0.70710037818695,  0.00300918059829 ]
      - [ -0.00000000000008,  0.00000000000019 ]
    - # atom 2
      - [ -0.00000000000000, -0.00000000000000 ]
      - [  0.70710037818695, -0.00300918059829 ]
      - [  0.00000000000008, -0.00000000000019 ]
  - # 6
    frequency:   15.0983254574
    eigenvector:
    - # atom 1
      - [  0.00000000000000,  0.00000000000000 ]
      - [  0.00000000000012,  0.00000000000017 ]
      - [ -0.68943559068003,  0.15709413198361 ]
    - # atom 2
      - [ -0.00323465885679, -0.01419587677414 ]
      - [ -0.00000000000012, -0.00000000000017 ]
      - [  0.68928942453728, -0.15706082670661 ]

- q-position: [    0.0150000,    0.0000000,    0.0150000 ]
  distance:    0.0054878
  band:
  - # 1
    frequency:    0.1840515751
    eigenvector:
    - # atom 1
      - [  0.00000000000000,  0.00000000000000 ]
      - [  0.00000000000010, -0.00000000000000 ]
      - [  0.70709889276608, -0.00334003727266 ]
    - # atom 2
      - [ -0.00010317863274, -0.02184331820538 ]
      - [  0.00000000000010, -0.00000000000000 ]
      - [  0.70676142622585, -0.00333844322290 ]
  - # 2
    frequency:    0.1840515751
    eigenvector:
    - # atom 1
      - [ -0.70710678118655,  0.00000000000000 ]
      - [  0.00000000000000,  0.00000000000000 ]
      - [  0.00000000000000,  0.00000000000000 ]
    - # atom 2
      - [ -0.70676931088153, -0.00000000000000 ]
      - [  0.00000000000000,  0.00000000000000 ]
      - [ -0.00000000000000,  0.02184356189022 ]
  - # 3
    frequency:    0.4344639799
    eigenvector:
    - # atom 1
      - [ -0.00000000000000,  0.00000000000000 ]
      - [  0.70710604448997,  0.00102070845515 ]
      - [ -0.00000000000010, -0.00000000000000 ]
    - # atom 2
      - [ -0.00000000000000,  0.00000000000000 ]
      - [  0.70710604448997,  0.00102070845515 ]
      - [ -0.00000000000010, -0.00000000000000 ]
  - # 4
    frequency:   15.0967634465
    eigenvector:
    - # atom 1
      - [ -0.70710678118655,  0.00000000000000 ]
      - [  0.00000000000000,  0.00000000000000 ]
      - [  0.00000000000000,  0.00000000000000 ]
    - # atom 2
      - [  0.70676931088153,  0.00000000000000 ]
      - [ -0.00000000000000, -0.00000000000000 ]
      - [  0.00000000000000, -0.02184356189022 ]
  - # 5
    frequency:   15.0982911088
    eigenvector:
    - # atom 1
      - [  0.00000000000000,  0.00000000000000 ]
      - [  0.70710603728462,  0.00102568788641 ]
      - [  0.00000000000042, -0.00000000000001 ]
    - # atom 2
      - [  0.00000000000000,  0.00000000000001 ]
      - [ -0.70710603728462, -0.00102568788641 ]
      - [ -0.00000000000042,  0.00000000000001 ]
  - # 6
    frequency:   15.0967634465
    eigenvector:
    - # atom 1
      - [  0.00000000000000,  0.00000000000000 ]
      - [  0.00000000000043,  0.00000000000002 ]
      - [ -0.70709889276608, -0.00334003727247 ]
    - # atom 2
      - [  0.00010317863273, -0.02184331820538 ]
      - [ -0.00000000000042, -0.00000000000002 ]
      - [  0.70676142622585,  0.00333844322271 ]

- q-position: [    0.0200000,    0.0000000,    0.0200000 ]
  distance:    0.0073170
  band:
  - # 1
    frequency:    0.2453741849
    eigenvector:
    - # atom 1
      - [ -0.01705682916201,  0.00000000000000 ]
      - [ -0.00000000000001, -0.00000000000000 ]
      - [  0.70023251767991, -0.09686839403330 ]
    - # atom 2
      - [ -0.02103323337829, -0.02884891712465 ]
      - [ -0.00000000000001, -0.00000000000000 ]
      - [  0.69963799124768, -0.09608342353032 ]
  - # 2
    frequency:    0.2453741849
    eigenvector:
    - # atom 1
      - [ -0.70690102884275,  0.00000000000000 ]
      - [  0.00000000000004, -0.00000000000000 ]
      - [ -0.01689592452186,  0.00233733943057 ]
    - # atom 2
      - [ -0.70620454439532,  0.00069609610232 ]
      - [  0.00000000000004, -0.00000000000000 ]
      - [ -0.01688157918160,  0.03145900840690 ]
  - # 3
    frequency:    0.5792086829
    eigenvector:
    - # atom 1
      - [ -0.00000000000004,  0.00000000000000 ]
      - [ -0.70710523396516,  0.00147922245892 ]
      - [ -0.00000000000001,  0.00000000000000 ]
    - # atom 2
      - [ -0.00000000000004,  0.00000000000000 ]
      - [ -0.70710523396516,  0.00147922245892 ]
      - [ -0.00000000000001,  0.00000000000000 ]
  - # 4
    frequency:   15.0945771961
    eigenvector:
    - # atom 1
      - [  0.70571742900598,  0.00000000000000 ]
      - [  0.00000000000011, -0.00000000000000 ]
      - [ -0.04388679831435, -0.00607118859040 ]
    - # atom 2
      - [ -0.70486811843169, -0.00180809456212 ]
      - [ -0.00000000000011,  0.00000000000000 ]
      - [  0.04384953660347,  0.03514092418075 ]
  - # 5
    frequency:   15.0972889996
    eigenvector:
    - # atom 1
      - [ -0.00000000000012,  0.00000000000000 ]
      - [  0.70710520461466, -0.00149318681254 ]
      - [ -0.00000000000018, -0.00000000000001 ]
    - # atom 2
      - [  0.00000000000012, -0.00000000000001 ]
      - [ -0.70710520461466,  0.00149318681254 ]
      - [  0.00000000000018,  0.00000000000000 ]
  - # 6
    frequency:   15.0945771961
    eigenvector:
    - # atom 1
      - [ -0.04430474463514,  0.00000000000000 ]
      - [ -0.00000000000019, -0.00000000000002 ]
      - [ -0.69906008326577, -0.09670620242398 ]
    - # atom 2
      - [  0.04825133210092, -0.02880061393622 ]
      - [  0.00000000000019,  0.00000000000002 ]
      - [  0.69846655227895,  0.09479878129459 ]

- q-position: [    0.0250000,    0.0000000,    0.0250000 ]
  distance:    0.0091463
  band:
  - # 1
    frequency:    0.3066569672
    eigenvector:
    - # atom 1
      - [ -0.00352076487872,  0.00000000000000 ]
      - [ -0.00000000000004, -0.00000000000001 ]
      - [ -0.70341455411569, -0.07208029739738 ]
    - # atom 2
      - [ -0.00722934821241,  0.03623680785611 ]
      - [ -0.00000000000004, -0.00000000000001 ]
      - [ -0.70248055396443, -0.07180321429191 ]
  - # 2
    frequency:    0.3066569672
    eigenvector:
    - # atom 1
      - [ -0.70709801598836,  0.00000000000000 ]
      - [  0.00000000000002,  0.00000000000000 ]
      - [  0.00350242427685,  0.00035890042651 ]
    - # atom 2
      - [ -0.70614063594021, -0.00018042941365 ]
      - [  0.00000000000002,  0.00000000000000 ]
      - [  0.00349777372649,  0.03678498740159 ]
  - # 3
    frequency:    0.7238810179
    eigenvector:
    - # atom 1
      - [ -0.00000000000002,  0.00000000000000 ]
      - [ -0.70710639722059,  0.00073689193019 ]
      - [  0.00000000000005, -0.00000000000000 ]
    - # atom 2
      - [ -0.00000000000002, -0.00000000000000 ]
      - [ -0.70710639722059,  0.00073689193019 ]
      - [  0.00000000000005, -0.00000000000000 ]
  - # 4
    frequency:   15.0917672751
    eigenvector:
    - # atom 1
      - [  0.70709401024853,  0.00000000000000 ]
      - [  0.00000000000007, -0.00000000000000 ]
      - [ -0.00422764651583,  0.00043321540104 ]
    - # atom 2
      - [ -0.70617744182454, -0.00021778965701 ]
      - [ -0.00000000000007,  0.00000000000000 ]
      - [  0.00422203300888,  0.03599371699453 ]
  - # 5
    frequency:   15.0959963534
    eigenvector:
    - # atom 1
      - [ -0.00000000000006,  0.00000000000000 ]
      - [  0.70710634807714, -0.00078262954530 ]
      - [  0.00000000000017,  0.00000000000000 ]
    - # atom 2
      - [  0.00000000000006,  0.00000000000001 ]
      - [ -0.70710634807714,  0.00078262954530 ]
      - [ -0.00000000000017, -0.00000000000001 ]
  - # 6
    frequency:   15.0917672751
    eigenvector:
    - # atom 1
      - [ -0.00424978477649,  0.00000000000000 ]
      - [  0.00000000000017, -0.00000000000002 ]
      - [ -0.70341056924272,  0.07207988906060 ]
    - # atom 2
      - [  0.00053090467301, -0.03623660257307 ]
      - [ -0.00000000000017,  0.00000000000002 ]
      - [  0.70247657438261, -0.07220311086001 ]

- q-position: [    0.0300000,    0.0000000,    0.0300000 ]
  distance:    0.0109755
  band:
  - # 1
    frequency:    0.3678919949
    eigenvector:
    - # atom 1
      - [  0.00138149134609,  0.00000000000000 ]
      - [ -0.00000000000003,  0.00000000000002 ]
      - [ -0.64630587531189,  0.28685677091362 ]
    - # atom 2
      - [  0.01911900243410,  0.03996965681127 ]
      - [ -0.00000000000003,  0.00000000000002 ]
      - [ -0.64506876454922,  0.28622225504537 ]
  - # 2
    frequency:    0.3678919949
    eigenvector:
    - # atom 1
      - [  0.70710543165900,  0.00000000000000 ]
      - [ -0.00000000000001, -0.00000000000000 ]
      - [  0.00126270557924, -0.00056043996954 ]
    - # atom 2
      - [  0.70571728346576, -0.00007808981874 ]
      - [ -0.00000000000001, -0.00000000000000 ]
      - [  0.00126028860189, -0.04428906628420 ]
  - # 3
    frequency:    0.8684638096
    eigenvector:
    - # atom 1
      - [  0.00000000000001,  0.00000000000000 ]
      - [  0.70710563174360,  0.00127497313179 ]
      - [ -0.00000000000004, -0.00000000000000 ]
    - # atom 2
      - [  0.00000000000001,  0.00000000000000 ]
      - [  0.70710563174360,  0.00127497313179 ]
      - [ -0.00000000000004, -0.00000000000000 ]
  - # 4
    frequency:   15.0883344206
    eigenvector:
    - # atom 1
      - [  0.70710571557203,  0.00000000000000 ]
      - [  0.00000000000003,  0.00000000000000 ]
      - [ -0.00112204772452, -0.00049801030651 ]
    - # atom 2
      - [ -0.70572142768870, -0.00006939107965 ]
      - [ -0.00000000000003, -0.00000000000000 ]
      - [  0.00111989998400,  0.04422677367750 ]
  - # 5
    frequency:   15.0944100177
    eigenvector:
    - # atom 1
      - [  0.00000000000003, -0.00000000000000 ]
      - [ -0.70710564402466, -0.00126814370990 ]
      - [  0.00000000000007,  0.00000000000000 ]
    - # atom 2
      - [ -0.00000000000003,  0.00000000000000 ]
      - [  0.70710564402466,  0.00126814370990 ]
      - [ -0.00000000000007,  0.00000000000000 ]
  - # 6
    frequency:   15.0883344206
    eigenvector:
    - # atom 1
      - [  0.00122760146688,  0.00000000000000 ]
      - [  0.00000000000006,  0.00000000000003 ]
      - [  0.64630613481283,  0.28685688609120 ]
    - # atom 2
      - [ -0.01896541424244,  0.03996967285965 ]
      - [ -0.00000000000006, -0.00000000000003 ]
      - [ -0.64506902355344, -0.28623188705299 ]

- q-position: [    0.0350000,    0.0000000,    0.0350000 ]
  distance:    0.0128048
  band:
  - # 1
    frequency:    0.4290706065
    eigenvector:
    - # atom 1
      - [  0.01999676533775, -0.00000000000000 ]
      - [ -0.00000000000002,  0.00000000000001 ]
      - [  0.62576593634388, -0.32865958420179 ]
    - # atom 2
      - [ -0.00377945373639, -0.04517046035295 ]
      - [ -0.00000000000002,  0.00000000000001 ]
      - [  0.62413350863404, -0.32924566609315 ]
  - # 2
    frequency:    0.4290706065
    eigenvector:
    - # atom 1
      - [ -0.70682397340217,  0.00000000000000 ]
      - [ -0.00000000000001,  0.00000000000000 ]
      - [  0.01770355145878, -0.00929811215889 ]
    - # atom 2
      - [ -0.70565126809670, -0.00127791802466 ]
      - [ -0.00000000000001,  0.00000000000000 ]
      - [  0.01765736842726,  0.04174771968943 ]
  - # 3
    frequency:    1.0129396096
    eigenvector:
    - # atom 1
      - [ -0.00000000000001, -0.00000000000000 ]
      - [  0.70710594820049, -0.00108536605862 ]
      - [  0.00000000000002, -0.00000000000000 ]
    - # atom 2
      - [ -0.00000000000001, -0.00000000000000 ]
      - [  0.70710594820049, -0.00108536605862 ]
      - [  0.00000000000002, -0.00000000000000 ]
  - # 4
    frequency:   15.0842795421
    eigenvector:
    - # atom 1
      - [ -0.70682844176013,  0.00000000000000 ]
      - [  0.00000000000003,  0.00000000000000 ]
      - [ -0.01756316446544, -0.00922437926904 ]
    - # atom 2
      - [  0.70565040244293, -0.00126778429135 ]
      - [ -0.00000000000003, -0.00000000000000 ]
      - [  0.01751734765970, -0.04182158277839 ]
  - # 5
    frequency:   15.0925261528
    eigenvector:
    - # atom 1
      - [ -0.00000000000002,  0.00000000000000 ]
      - [ -0.70710600594825,  0.00104706824626 ]
      - [ -0.00000000000002,  0.00000000000001 ]
    - # atom 2
      - [  0.00000000000002, -0.00000000000000 ]
      - [  0.70710600594825, -0.00104706824626 ]
      - [  0.00000000000002, -0.00000000000001 ]
  - # 6
    frequency:   15.0842795421
    eigenvector:
    - # atom 1
      - [ -0.01983819343941,  0.00000000000000 ]
      - [ -0.00000000000002, -0.00000000000002 ]
      - [  0.62576989227382,  0.32866166190274 ]
    - # atom 2
      - [ -0.00393776194756,  0.04517074590888 ]
      - [  0.00000000000002,  0.00000000000002 ]
      - [ -0.62413745424419, -0.32923629197653 ]

- q-position: [    0.0400000,    0.0000000,    0.0400000 ]
  distance:    0.0146341
  band:
  - # 1
    frequency:    0.4901838851
    eigenvector:
    - # atom 1
      - [  0.48697560665071,  0.00000000000000 ]
      - [  0.00000000000000, -0.00000000000000 ]
      - [ -0.50836004088835, -0.06651937578760 ]
    - # atom 2
      - [  0.47982332665573,  0.04196046316658 ]
      - [  0.00000000000000, -0.00000000000000 ]
      - [ -0.50662535536908, -0.10648776467287 ]
  - # 2
    frequency:    0.4901838851
    eigenvector:
    - # atom 1
      - [ -0.51269363027755,  0.00000000000000 ]
      - [ -0.00000000000002, -0.00000000000000 ]
      - [ -0.48285940118773, -0.06318259378540 ]
    - # atom 2
      - [ -0.51615930134005,  0.03985561902696 ]
      - [ -0.00000000000002, -0.00000000000000 ]
      - [ -0.48121173193029, -0.02064883349668 ]
  - # 3
    frequency:    1.1572909069
    eigenvector:
    - # atom 1
      - [ -0.00000000000001, -0.00000000000000 ]
      - [  0.70710436649636, -0.00184793987642 ]
      - [ -0.00000000000001, -0.00000000000000 ]
    - # atom 2
      - [ -0.00000000000001,  0.00000000000000 ]
      - [  0.70710436649636, -0.00184793987642 ]
      - [ -0.00000000000001,  0.00000000000000 ]
  - # 4
    frequency:   15.0796037268
    eigenvector:
    - # atom 1
      - [ -0.70653548077651,  0.00000000000000 ]
      - [  0.00000000000004,  0.00000000000000 ]
      - [ -0.02817834695331,  0.00368716244255 ]
    - # atom 2
      - [  0.70382021639657, -0.00232586433694 ]
      - [ -0.00000000000004, -0.00000000000000 ]
      - [  0.02808219350598, -0.06199261048271 ]
  - # 5
    frequency:   15.0903402403
    eigenvector:
    - # atom 1
      - [ -0.00000000000004,  0.00000000000000 ]
      - [ -0.70710475278456,  0.00169369108546 ]
      - [  0.00000000000009,  0.00000000000000 ]
    - # atom 2
      - [  0.00000000000004,  0.00000000000001 ]
      - [  0.70710475278456, -0.00169369108546 ]
      - [ -0.00000000000009, -0.00000000000000 ]
  - # 6
    frequency:   15.0796037268
    eigenvector:
    - # atom 1
      - [  0.02841855738596,  0.00000000000000 ]
      - [ -0.00000000000009,  0.00000000000001 ]
      - [ -0.70056342557287,  0.09166936427026 ]
    - # atom 2
      - [ -0.03588805029959, -0.05782509137271 ]
      - [  0.00000000000009, -0.00000000000001 ]
      - [  0.69817288121075, -0.08901086784942 ]

- q-position: [    0.0450000,    0.0000000,    0.0450000 ]
  distance:    0.0164633
  band:
  - # 1
    frequency:    0.5512228200
    eigenvector:
    - # atom 1
      - [  0.01699273772465,  0.00000000000000 ]
      - [ -0.00000000000001, -0.00000000000000 ]
      - [ -0.70481658426591, -0.05426628242618 ]
    - # atom 2
      - [  0.01187707023679,  0.06548810899688 ]
      - [ -0.00000000000001, -0.00000000000000 ]
      - [ -0.70176757194692, -0.05561041041322 ]
  - # 2
    frequency:    0.5512228200
    eigenvector:
    - # atom 1
      - [  0.70690257239921,  0.00000000000000 ]
      - [ -0.00000000000001,  0.00000000000000 ]
      - [  0.01694259411133,  0.00130446930110 ]
    - # atom 2
      - [  0.70396574107315, -0.00157422296044 ]
      - [ -0.00000000000001,  0.00000000000000 ]
      - [  0.01686930103152, -0.06438310259769 ]
  - # 3
    frequency:    1.3015002040
    eigenvector:
    - # atom 1
      - [ -0.00000000000001,  0.00000000000000 ]
      - [ -0.70710529511441, -0.00144969691982 ]
      - [  0.00000000000001,  0.00000000000000 ]
    - # atom 2
      - [ -0.00000000000001, -0.00000000000000 ]
      - [ -0.70710529511441, -0.00144969691982 ]
      - [  0.00000000000001,  0.00000000000000 ]
  - # 4
    frequency:   15.0743082455
    eigenvector:
    - # atom 1
      - [  0.70709580639776,  0.00000000000000 ]
      - [  0.00000000000003,  0.00000000000000 ]
      - [ -0.00392799070732,  0.00030242967866 ]
    - # atom 2
      - [ -0.70406503452839, -0.00036496968051 ]
      - [ -0.00000000000003, -0.00000000000000 ]
      - [  0.00391099835452,  0.06539876178900 ]
  - # 5
    frequency:   15.0878470927
    eigenvector:
    - # atom 1
      - [ -0.00000000000003,  0.00000000000000 ]
      - [  0.70710514610850,  0.00152064028702 ]
      - [ -0.00000000000002,  0.00000000000000 ]
    - # atom 2
      - [  0.00000000000003, -0.00000000000000 ]
      - [ -0.70710514610850, -0.00152064028702 ]
      - [  0.00000000000002, -0.00000000000001 ]
  - # 6
    frequency:   15.0743082455
    eigenvector:
    - # atom 1
      - [ -0.00393961606090,  0.00000000000000 ]
      - [ -0.00000000000002, -0.00000000000000 ]
      - [ -0.70500924805317,  0.05428111628182 ]
    - # atom 2
      - [ -0.00112096236058, -0.06550601037347 ]
      - [  0.00000000000002,  0.00000000000000 ]
      - [  0.70195940227726, -0.05441234788992 ]

- q-position: [    0.0500000,    0.0000000,    0.0500000 ]
  distance:    0.0182926
  band:
  - # 1
    frequency:    0.6121783737
    eigenvector:
    - # atom 1
      - [ -0.40258310134729,  0.00000000000000 ]
      - [  0.00000000000002, -0.00000000000000 ]
      - [ -0.57405522538465,  0.09158299360787 ]
    - # atom 2
      - [ -0.39096762475427,  0.05930520838600 ]
      - [  0.00000000000002, -0.00000000000000 ]
      - [ -0.57098361977355,  0.13268351292677 ]
  - # 2
    frequency:    0.6121783737
    eigenvector:
    - # atom 1
      - [  0.58131475683109,  0.00000000000000 ]
      - [  0.00000000000000, -0.00000000000000 ]
      - [ -0.39755559318636,  0.06342478866064 ]
    - # atom 2
      - [  0.58475667417997,  0.04107116572824 ]
      - [  0.00000000000000, -0.00000000000000 ]
      - [ -0.39542838671431,  0.00303023567103 ]
  - # 3
    frequency:    1.4455500532
    eigenvector:
    - # atom 1
      - [  0.00000000000001,  0.00000000000000 ]
      - [  0.70710223613937, -0.00253528039845 ]
      - [  0.00000000000002, -0.00000000000000 ]
    - # atom 2
      - [  0.00000000000001, -0.00000000000000 ]
      - [  0.70710223613937, -0.00253528039845 ]
      - [  0.00000000000002, -0.00000000000000 ]
  - # 4
    frequency:   15.0683945599
    eigenvector:
    - # atom 1
      - [ -0.70619419617684,  0.00000000000000 ]
      - [ -0.00000000000003,  0.00000000000000 ]
      - [ -0.03546470255276, -0.00565792886045 ]
    - # atom 2
      - [  0.70300006898434, -0.00366383142637 ]
      - [  0.00000000000003, -0.00000000000000 ]
      - [  0.03527494105502, -0.06732872998097 ]
  - # 5
    frequency:   15.0850408641
    eigenvector:
    - # atom 1
      - [  0.00000000000004,  0.00000000000000 ]
      - [ -0.70710270629010,  0.00240057435114 ]
      - [ -0.00000000000001,  0.00000000000000 ]
    - # atom 2
      - [ -0.00000000000004, -0.00000000000000 ]
      - [  0.70710270629010, -0.00240057435114 ]
      - [  0.00000000000001,  0.00000000000000 ]
  - # 6
    frequency:   15.0683945599
    eigenvector:
    - # atom 1
      - [  0.03591319097693,  0.00000000000000 ]
      - [  0.00000000000001,  0.00000000000000 ]
      - [ -0.69737515466068, -0.11125707337445 ]
    - # atom 2
      - [ -0.02422714617992, -0.07204529641318 ]
      - [ -0.00000000000001, -0.00000000000000 ]
      - [  0.69364369931741,  0.11437193296421 ]

- q-position: [    0.0550000,    0.0000000,    0.0550000 ]
  distance:    0.0201218
  band:
  - # 1
    frequency:    0.6730415138
    eigenvector:
    - # atom 1
      - [  0.01895733716757,  0.00000000000000 ]
      - [ -0.00000000000000,  0.00000000000000 ]
      - [  0.36244330667288, -0.60685704149787 ]
    - # atom 2
      - [ -0.05018068759444, -0.04121899453300 ]
      - [ -0.00000000000000,  0.00000000000000 ]
      - [  0.36009185639453, -0.60507582007595 ]
  - # 2
    frequency:    0.6730415138
    eigenvector:
    - # atom 1
      - [ -0.70685261502488,  0.00000000000000 ]
      - [ -0.00000000000001,  0.00000000000000 ]
      - [  0.00972049876124, -0.01627551954064 ]
    - # atom 2
      - [ -0.70411765424858, -0.00110546719424 ]
      - [ -0.00000000000001,  0.00000000000000 ]
      - [  0.00965743436166,  0.06421713851701 ]
  - # 3
    frequency:    1.5894230771
    eigenvector:
    - # atom 1
      - [ -0.00000000000001, -0.00000000000000 ]
      - [  0.70710552728633, -0.00133164601724 ]
      - [  0.00000000000000,  0.00000000000000 ]
    - # atom 2
      - [ -0.00000000000001, -0.00000000000000 ]
      - [  0.70710552728633, -0.00133164601724 ]
      - [  0.00000000000000,  0.00000000000000 ]
  - # 4
    frequency:   15.0618643298
    eigenvector:
    - # atom 1
      - [ -0.70708923586520,  0.00000000000000 ]
      - [  0.00000000000003,  0.00000000000000 ]
      - [ -0.00255415167208, -0.00427654449323 ]
    - # atom 2
      - [  0.70298815222249, -0.00029047181137 ]
      - [ -0.00000000000003, -0.00000000000000 ]
      - [  0.00253758091315, -0.07616517671511 ]
  - # 5
    frequency:   15.0819150623
    eigenvector:
    - # atom 1
      - [ -0.00000000000003,  0.00000000000000 ]
      - [ -0.70710594768148,  0.00108570413542 ]
      - [ -0.00000000000005, -0.00000000000000 ]
    - # atom 2
      - [  0.00000000000003, -0.00000000000001 ]
      - [  0.70710594768148, -0.00108570413542 ]
      - [  0.00000000000004,  0.00000000000000 ]
  - # 6
    frequency:   15.0618643298
    eigenvector:
    - # atom 1
      - [ -0.00498121707684,  0.00000000000000 ]
      - [ -0.00000000000003, -0.00000000000004 ]
      - [  0.36256463555740,  0.60706018854770 ]
    - # atom 2
      - [ -0.06408923674679,  0.04123279270374 ]
      - [  0.00000000000003,  0.00000000000004 ]
      - [ -0.36021239812466, -0.60368820990338 ]

- q-position: [    0.0600000,    0.0000000,    0.0600000 ]
  distance:    0.0219511
  band:
  - # 1
    frequency:    0.7338032296
    eigenvector:
    - # atom 1
      - [ -0.00738511460119,  0.00000000000000 ]
      - [  0.00000000000000, -0.00000000000000 ]
      - [  0.53053706724030, -0.46741403526893 ]
    - # atom 2
      - [ -0.06536469285830, -0.06587443480269 ]
      - [  0.00000000000000, -0.00000000000000 ]
      - [  0.52643151364196, -0.46287998143320 ]
  - # 2
    frequency:    0.7338032296
    eigenvector:
    - # atom 1
      - [  0.70706821458918,  0.00000000000000 ]
      - [  0.00000000000000, -0.00000000000000 ]