   2   2   0   0
  0.2042143E+02  0.3865542E-09  0.3865542E-09  0.3865542E-09  0.5000000E-15
  1.000000000000000E-004
  CAR 
 unknown system                          
     79.40129919    -10.27128521  301      5.90714356      1.00000000
    -10.271  0.0000E+00  0.0000E+00
     -9.972  0.0000E+00  0.0000E+00
     -9.673  0.0000E+00  0.0000E+00
     -9.375  0.0000E+00  0.0000E+00
     -9.076  0.0000E+00  0.0000E+00
     -8.777  0.0000E+00  0.0000E+00
     -8.478  0.0000E+00  0.0000E+00
     -8.179  0.0000E+00  0.0000E+00
     -7.880  0.0000E+00  0.0000E+00
     -7.581  0.0000E+00  0.0000E+00
     -7.282  0.0000E+00  0.0000E+00
     -6.983  0.0000E+00  0.0000E+00
     -6.684  0.0000E+00  0.0000E+00
     -6.385  0.1871E-11  0.5594E-12
     -6.087  0.3130E-03  0.9355E-04
     -5.788  0.2035E-02  0.7020E-03
     -5.489  0.2662E-02  0.1498E-02
     -5.190  0.3423E-02  0.2521E-02
     -4.891  0.4539E-02  0.3878E-02
     -4.592  0.3976E-02  0.5066E-02
     -4.293  0.6687E-02  0.7065E-02
     -3.994  0.5602E-02  0.8740E-02
     -3.695  0.1056E-01  0.1190E-01
     -3.396  0.5329E-02  0.1349E-01
     -3.097  0.9118E-02  0.1621E-01
     -2.799  0.2997E-02  0.1711E-01
     -2.500  0.6485E-02  0.1905E-01
     -2.201  0.2343E-02  0.1975E-01
     -1.902  0.1518E-02  0.2020E-01
     -1.603  0.1893E-02  0.2077E-01
     -1.304  0.6704E-02  0.2277E-01
     -1.005  0.9685E-02  0.2567E-01
     -0.706  0.1072E-01  0.2887E-01
     -0.407  0.5290E-02  0.3046E-01
     -0.108  0.5073E-02  0.3197E-01
      0.191  0.4217E-02  0.3323E-01
      0.489  0.4789E-02  0.3466E-01
      0.788  0.2329E-02  0.3536E-01
      1.087  0.2503E-02  0.3611E-01
      1.386  0.4557E-02  0.3747E-01
      1.685  0.9176E-02  0.4021E-01
      1.984  0.1235E-01  0.4391E-01
      2.283  0.8417E-02  0.4642E-01
      2.582  0.1176E-01  0.4994E-01
      2.881  0.1138E-01  0.5334E-01
      3.180  0.1813E-01  0.5876E-01
      3.479  0.1425E-01  0.6302E-01
      3.777  0.1114E-01  0.6635E-01
      4.076  0.1345E-01  0.7037E-01
      4.375  0.1156E-01  0.7382E-01
      4.674  0.9618E-02  0.7670E-01
      4.973  0.6489E-02  0.7864E-01
      5.272  0.2895E-02  0.7951E-01
      5.571  0.1495E-02  0.7995E-01
      5.870  0.1592E-03  0.8000E-01
      6.169  0.2546E-06  0.8000E-01
      6.468  0.1017E-02  0.8030E-01
      6.767  0.3429E-02  0.8133E-01
      7.065  0.4931E-02  0.8280E-01
      7.364  0.8137E-02  0.8524E-01
      7.663  0.1071E-01  0.8844E-01
      7.962  0.1549E-01  0.9306E-01
      8.261  0.1125E-01  0.9643E-01
      8.560  0.1409E-01  0.1006E+00
      8.859  0.1082E-01  0.1039E+00
      9.158  0.2247E-01  0.1106E+00
      9.457  0.1905E-01  0.1163E+00
      9.756  0.9124E-02  0.1190E+00
     10.055  0.1202E-01  0.1226E+00
     10.353  0.1562E-01  0.1273E+00
     10.652  0.1474E-01  0.1317E+00
     10.951  0.1067E-01  0.1349E+00
     11.250  0.7745E-02  0.1372E+00
     11.549  0.1131E-01  0.1406E+00
     11.848  0.1184E-01  0.1441E+00
     12.147  0.1401E-01  0.1483E+00
     12.446  0.1112E-01  0.1516E+00
     12.745  0.7346E-02  0.1538E+00
     13.044  0.1191E-01  0.1574E+00
     13.342  0.1316E-01  0.1613E+00
     13.641  0.1473E-01  0.1657E+00
     13.940  0.1381E-01  0.1698E+00
     14.239  0.8662E-02  0.1724E+00
     14.538  0.1327E-01  0.1764E+00
     14.837  0.8077E-02  0.1788E+00
     15.136  0.1551E-01  0.1834E+00
     15.435  0.1818E-01  0.1889E+00
     15.734  0.1875E-01  0.1945E+00
     16.033  0.8901E-02  0.1971E+00
     16.332  0.1083E-01  0.2004E+00
     16.630  0.6769E-02  0.2024E+00
     16.929  0.1370E-01  0.2065E+00
     17.228  0.1319E-01  0.2104E+00
     17.527  0.2114E-01  0.2168E+00
     17.826  0.1389E-01  0.2209E+00
     18.125  0.1490E-01  0.2254E+00
     18.424  0.1180E-01  0.2289E+00
     18.723  0.1274E-01  0.2327E+00
     19.022  0.1699E-01  0.2378E+00
     19.321  0.1616E-01  0.2426E+00
     19.620  0.2343E-01  0.2496E+00
     19.918  0.1380E-01  0.2537E+00
     20.217  0.1307E-01  0.2576E+00
     20.516  0.1064E-01  0.2608E+00
     20.815  0.1641E-01  0.2657E+00
     21.114  0.1721E-01  0.2709E+00
     21.413  0.1348E-01  0.2749E+00
     21.712  0.1672E-01  0.2799E+00
     22.011  0.1271E-01  0.2837E+00
     22.310  0.1314E-01  0.2876E+00
     22.609  0.1458E-01  0.2920E+00
     22.908  0.1421E-01  0.2962E+00
     23.206  0.1508E-01  0.3007E+00
     23.505  0.2188E-01  0.3073E+00
     23.804  0.1941E-01  0.3131E+00
     24.103  0.1353E-01  0.3171E+00
     24.402  0.1938E-01  0.3229E+00
     24.701  0.1891E-01  0.3286E+00
     25.000  0.1458E-01  0.3329E+00
     25.299  0.1913E-01  0.3387E+00
     25.598  0.1699E-01  0.3437E+00
     25.897  0.1844E-01  0.3492E+00
     26.196  0.1136E-01  0.3526E+00
     26.494  0.1926E-01  0.3584E+00
     26.793  0.1831E-01  0.3639E+00
     27.092  0.1582E-01  0.3686E+00
     27.391  0.1355E-01  0.3726E+00
     27.690  0.2181E-01  0.3792E+00
     27.989  0.1605E-01  0.3840E+00
     28.288  0.1829E-01  0.3894E+00
     28.587  0.2233E-01  0.3961E+00
     28.886  0.1823E-01  0.4016E+00
     29.185  0.9081E-02  0.4043E+00
     29.484  0.1167E-01  0.4078E+00
     29.782  0.1553E-01  0.4124E+00
     30.081  0.2232E-01  0.4191E+00
     30.380  0.1944E-01  0.4249E+00
     30.679  0.1456E-01  0.4292E+00
     30.978  0.8283E-02  0.4317E+00
     31.277  0.1850E-01  0.4372E+00
     31.576  0.1559E-01  0.4419E+00
     31.875  0.2087E-01  0.4481E+00
     32.174  0.1753E-01  0.4534E+00
     32.473  0.9697E-02  0.4563E+00
     32.772  0.2426E-01  0.4635E+00
     33.070  0.1985E-01  0.4695E+00
     33.369  0.1912E-01  0.4752E+00
     33.668  0.1808E-01  0.4806E+00
     33.967  0.1098E-01  0.4839E+00
     34.266  0.1659E-01  0.4888E+00
     34.565  0.1784E-01  0.4942E+00
     34.864  0.3175E-01  0.5037E+00
     35.163  0.1571E-01  0.5084E+00
     35.462  0.1697E-01  0.5134E+00
     35.761  0.1606E-01  0.5182E+00
     36.060  0.2209E-01  0.5248E+00
     36.358  0.2344E-01  0.5318E+00
     36.657  0.2336E-01  0.5388E+00
     36.956  0.1516E-01  0.5434E+00
     37.255  0.1822E-01  0.5488E+00
     37.554  0.1691E-01  0.5539E+00
     37.853  0.2226E-01  0.5605E+00
     38.152  0.2337E-01  0.5675E+00
     38.451  0.1852E-01  0.5730E+00
     38.750  0.1684E-01  0.5781E+00
     39.049  0.1648E-01  0.5830E+00
     39.348  0.1710E-01  0.5881E+00
     39.646  0.2119E-01  0.5944E+00
     39.945  0.2843E-01  0.6029E+00
     40.244  0.1743E-01  0.6081E+00
     40.543  0.1239E-01  0.6118E+00
     40.842  0.1323E-01  0.6158E+00
     41.141  0.1406E-01  0.6200E+00
     41.440  0.1959E-01  0.6259E+00
     41.739  0.1229E-01  0.6295E+00
     42.038  0.2097E-01  0.6358E+00
     42.337  0.1942E-01  0.6416E+00
     42.636  0.2223E-01  0.6483E+00
     42.934  0.1419E-01  0.6525E+00
     43.233  0.1603E-01  0.6573E+00
     43.532  0.1395E-01  0.6615E+00
     43.831  0.2821E-01  0.6699E+00
     44.130  0.2620E-01  0.6777E+00
     44.429  0.1952E-01  0.6836E+00
     44.728  0.2380E-01  0.6907E+00
     45.027  0.1802E-01  0.6961E+00
     45.326  0.1294E-01  0.6999E+00
     45.625  0.2020E-01  0.7060E+00
     45.924  0.2612E-01  0.7138E+00
     46.222  0.2249E-01  0.7205E+00
     46.521  0.2359E-01  0.7276E+00
     46.820  0.1477E-01  0.7320E+00
     47.119  0.1793E-01  0.7373E+00
     47.418  0.1063E-01  0.7405E+00
     47.717  0.1550E-01  0.7451E+00
     48.016  0.2838E-01  0.7536E+00
     48.315  0.2729E-01  0.7618E+00
     48.614  0.2532E-01  0.7693E+00
     48.913  0.1806E-01  0.7747E+00
     49.212  0.1938E-01  0.7805E+00
     49.510  0.3023E-01  0.7896E+00
     49.809  0.1748E-01  0.7948E+00
     50.108  0.2577E-01  0.8025E+00
     50.407  0.2450E-01  0.8098E+00
     50.706  0.1247E-01  0.8136E+00
     51.005  0.2514E-01  0.8211E+00
     51.304  0.1611E-01  0.8259E+00
     51.603  0.1722E-01  0.8310E+00
     51.902  0.2920E-01  0.8398E+00
     52.201  0.2291E-01  0.8466E+00
     52.500  0.1855E-01  0.8522E+00
     52.798  0.2548E-01  0.8598E+00
     53.097  0.2158E-01  0.8662E+00
     53.396  0.2251E-01  0.8730E+00
     53.695  0.2271E-01  0.8797E+00
     53.994  0.2476E-01  0.8871E+00
     54.293  0.2798E-01  0.8955E+00
     54.592  0.2269E-01  0.9023E+00
     54.891  0.2665E-01  0.9103E+00
     55.190  0.1862E-01  0.9158E+00
     55.489  0.1824E-01  0.9213E+00
     55.788  0.1038E-01  0.9244E+00
     56.086  0.1944E-01  0.9302E+00
     56.385  0.2002E-01  0.9362E+00
     56.684  0.2091E-01  0.9424E+00
     56.983  0.2057E-01  0.9486E+00
     57.282  0.2191E-01  0.9551E+00
     57.581  0.1982E-01  0.9611E+00
     57.880  0.1488E-01  0.9655E+00
     58.179  0.1615E-01  0.9703E+00
     58.478  0.2323E-01  0.9773E+00
     58.777  0.1351E-01  0.9813E+00
     59.076  0.2071E-01  0.9875E+00
     59.374  0.2779E-01  0.9958E+00
     59.673  0.2922E-01  0.1005E+01
     59.972  0.2958E-01  0.1013E+01
     60.271  0.2697E-01  0.1021E+01
     60.570  0.2324E-01  0.1028E+01
     60.869  0.2488E-01  0.1036E+01
     61.168  0.2543E-01  0.1043E+01
     61.467  0.2172E-01  0.1050E+01
     61.766  0.2371E-01  0.1057E+01
     62.065  0.2188E-01  0.1064E+01
     62.364  0.2567E-01  0.1071E+01
     62.662  0.1936E-01  0.1077E+01
     62.961  0.2620E-01  0.1085E+01
     63.260  0.2005E-01  0.1091E+01
     63.559  0.2318E-01  0.1098E+01
     63.858  0.3441E-01  0.1108E+01
     64.157  0.2458E-01  0.1115E+01
     64.456  0.2121E-01  0.1122E+01
     64.755  0.2087E-01  0.1128E+01
     65.054  0.2690E-01  0.1136E+01
     65.353  0.2314E-01  0.1143E+01
     65.652  0.2890E-01  0.1152E+01
     65.950  0.2755E-01  0.1160E+01
     66.249  0.1757E-01  0.1165E+01
     66.548  0.2209E-01  0.1172E+01
     66.847  0.2529E-01  0.1179E+01
     67.146  0.2084E-01  0.1185E+01
     67.445  0.3141E-01  0.1195E+01
     67.744  0.1943E-01  0.1201E+01
     68.043  0.3290E-01  0.1210E+01
     68.342  0.1796E-01  0.1216E+01
     68.641  0.2543E-01  0.1223E+01
     68.939  0.2908E-01  0.1232E+01
     69.238  0.3246E-01  0.1242E+01
     69.537  0.1739E-01  0.1247E+01
     69.836  0.1705E-01  0.1252E+01
     70.135  0.2943E-01  0.1261E+01
     70.434  0.1978E-01  0.1267E+01
     70.733  0.2371E-01  0.1274E+01
     71.032  0.1060E-01  0.1277E+01
     71.331  0.2604E-02  0.1278E+01
     71.630  0.4598E-03  0.1278E+01
     71.929  0.1231E-02  0.1278E+01
     72.227  0.6201E-03  0.1279E+01
     72.526  0.4021E-03  0.1279E+01
     72.825  0.1196E-02  0.1279E+01
     73.124  0.3000E-03  0.1279E+01
     73.423  0.3135E-03  0.1279E+01
     73.722  0.2679E-04  0.1279E+01
     74.021  0.5765E-03  0.1279E+01
     74.320  0.1443E-05  0.1279E+01
     74.619  0.6850E-03  0.1280E+01
     74.918  0.1835E-03  0.1280E+01
     75.217  0.6888E-03  0.1280E+01
     75.515  0.3013E-03  0.1280E+01
     75.814  0.0000E+00  0.1280E+01
     76.113  0.0000E+00  0.1280E+01
     76.412  0.0000E+00  0.1280E+01
     76.711  0.0000E+00  0.1280E+01
     77.010  0.0000E+00  0.1280E+01
     77.309  0.0000E+00  0.1280E+01
     77.608  0.0000E+00  0.1280E+01
     77.907  0.0000E+00  0.1280E+01
     78.206  0.0000E+00  0.1280E+01
     78.505  0.0000E+00  0.1280E+01
     78.803  0.0000E+00  0.1280E+01
     79.102  0.0000E+00  0.1280E+01
     79.401  0.0000E+00  0.1280E+01
